-- Generated [
-- Format      : ECLIPSE keywords (grid geometry and properties) (ASCII)
-- Exported by : Petrel 2019.2 Schlumberger
-- User name   : Zhenk
-- Date        : Thursday, October 26 2023 17:51:07
-- Project     : BraidedModel_NoCaprock.pet
-- Grid        : Braided-Fluvial_final
-- Generated ]

PINCH                                  -- Generated : Petrel
  /

NOECHO                                 -- Generated : Petrel

MAPUNITS                               -- Generated : Petrel
  METRES /

MAPAXES                                -- Generated : Petrel
  666866.1572 5736161.325 666866.1572 5737161.325 667866.1572 5737161.325 /

GRIDUNIT                               -- Generated : Petrel
  METRES /

SPECGRID                               -- Generated : Petrel
  60 18 28 1 F /

COORDSYS                               -- Generated : Petrel
  1 28 /

COORD                                  -- Generated : Petrel
  1214.133497 431.4785562 1423.460449 1114.17053 962.7260748 2139.217773 1235.014935 440.8098337 1422.493042 1135.975811 972.4701899
  2138.894531 1255.896372 450.1411113 1420.654785 1157.781092 982.2143051 2138.282715 1276.777809 459.4723888 1418.03064 1179.586373
  991.9584203 2137.408691 1297.659247 468.8036663 1414.804199 1201.391655 1001.702536 2136.321289 1318.540684 478.1349438 1411.15918
  1223.196936 1011.446651 2135.068359 1339.422121 487.4662214 1407.131104 1245.002217 1021.190766 2133.686035 1360.303559
  496.7974989 1403.333618 1266.807498 1030.934881 2132.39209 1381.184996 506.1287764 1399.231934 1288.61278 1040.678996 2131
  1373.034978 684.9203022 1627.152832 1364.713716 733.4925538 1693.88916 1393.189638 694.8932685 1622.346802 1384.166292 747.5933255
  1694.732666 1413.869693 705.4651841 1619.480591 1404.62204 759.5089649 1693.687256 1438.48782 726.9978431 1617.293335 1429.778112
  778.7098851 1688.817505 1464.903804 746.3994034 1615.283203 1457.00741 794.0587411 1681.69043 1492.626062 764.2283011 1612.800415
  1485.523083 807.8035049 1673.955566 1521.655398 780.083871 1609.442139 1515.194268 820.4317281 1666.486206 1552.319367 793.3520308
  1604.881226 1546.071654 832.901517 1661.135498 1613.068028 636.2615145 1354.537354 1528.314943 1169.450834 2117.705078 1646.720348
  650.6971807 1348.849976 1561.46146 1183.770814 2116.164063 1680.372668 665.1328469 1343.197754 1594.607976 1198.090793 2114.70752
  1714.024987 679.5685131 1336.879517 1627.754492 1212.410773 2113.272461 1747.677307 694.0041792 1330.54895 1660.901008 1226.730753
  2112.049316 1781.329626 708.4398454 1323.960938 1694.047524 1241.050732 2111.087891 1814.981946 722.8755116 1316.798828 1727.19404
  1255.370712 2110.328125 1848.634266 737.3111778 1309.479858 1760.340556 1269.690692 2109.666504 1882.286585 751.746844 1302.217529
  1793.487072 1284.010671 2109.025879 1915.938905 766.1825102 1295.170044 1826.633588 1298.330651 2108.361816 1949.591224
  780.6181763 1288.45874 1859.780105 1312.650631 2107.656738 1983.243544 795.0538425 1282.176758 1892.926621 1326.97061 2106.893555
  2016.895864 809.4895087 1276.419922 1926.073137 1341.29059 2106.055664 2050.548183 823.9251749 1271.246582 1959.219653 1355.610569
  2105.135254 2084.200503 838.3608411 1266.696167 1992.366169 1369.930549 2104.124023 2117.852822 852.7965072 1262.753418
  2025.512685 1384.250529 2103.043457 2151.505142 867.2321734 1259.362549 2058.659201 1398.570508 2101.911133 2185.157462
  881.6678396 1256.456421 2091.805717 1412.890488 2100.769531 2218.809781 896.1035058 1253.931763 2124.952233 1427.210468
  2099.651367 2252.462101 910.539172 1251.724243 2158.098749 1441.530447 2098.602051 2286.114421 924.9748381 1249.763184 2191.245266
  1455.850427 2097.674316 2319.76674 939.4105043 1247.985596 2224.391782 1470.170407 2096.918457 2353.41906 953.8461705 1246.339478
  2257.538298 1484.490386 2096.362305 2387.071379 968.2818367 1244.803589 2290.684814 1498.810366 2096.02832 2420.723699 982.7175029
  1243.346069 2323.83133 1513.130346 2095.911133 2454.376019 997.153169 1241.915894 2356.977846 1527.450325 2095.986816 2488.028338
  1011.588835 1240.49939 2390.124362 1541.770305 2096.209473 2521.680658 1026.024501 1239.091919 2423.270878 1556.090285 2096.535156
  2555.332977 1040.460168 1237.690918 2456.417394 1570.410264 2096.922363 2588.985297 1054.895834 1236.274292 2489.563911
  1584.730244 2097.343262 2622.637617 1069.3315 1234.822876 2522.710427 1599.050224 2097.773926 2656.289936 1083.767166 1233.312988
  2555.856943 1613.370203 2098.199219 2689.942256 1098.202832 1231.748169 2589.003459 1627.690183 2098.610352 2723.594576
  1112.638498 1230.170288 2622.149975 1642.010163 2099.000977 2757.246895 1127.074165 1228.590942 2655.296491 1656.330142
  2099.366699 2790.899215 1141.509831 1227.053345 2688.443007 1670.650122 2099.705566 2824.551534 1155.945497 1225.595093
  2721.589523 1684.970101 2100.016113 2858.203854 1170.381163 1224.261597 2754.736039 1699.290081 2100.295898 2891.856174
  1184.816829 1223.065796 2787.882555 1713.610061 2100.538574 2925.508493 1199.252496 1222.035278 2821.029072 1727.93004 2100.745117
  2959.160813 1213.688162 1221.193115 2854.175588 1742.25002 2100.90625 2992.813132 1228.123828 1220.560059 2887.322104 1756.57
  2101.031738 3026.465452 1242.559494 1220.135986 2920.46862 1770.889979 2101.115723 3060.117772 1256.99516 1219.918823 2953.615136
  1785.209959 2101.157715 1196.983576 469.8789605 1424.444214 1096.286358 1003.195992 2139.541504 1218.789967 477.1628697
  1423.394653 1119.760071 1009.655409 2139.187988 1240.596359 484.4467789 1421.422607 1143.233784 1016.114826 2138.53125 1262.402751
  491.7306881 1418.669556 1166.707497 1022.574243 2137.611328 1284.209143 499.0145973 1415.279053 1190.18121 1029.03366 2136.458984
  1306.015534 506.2985065 1411.557739 1213.654923 1035.493076 2135.201172 1298.608866 683.7747957 1640.972656 1291.954177
  722.5443526 1694.295654 1317.201203 696.4502139 1635.210083 1310.226144 737.1068755 1691.113281 1335.920636 708.4622161
  1629.357544 1328.581099 751.2665466 1688.196655 1354.800211 720.0974257 1625.037964 1346.803736 766.7602871 1689.160889
  1374.321306 729.5626739 1620.411377 1365.432622 780.2624767 1689.96875 1394.145555 740.2491441 1616.853027 1384.720002 793.3953111
  1689.71521 1420.640586 760.1396941 1614.347656 1411.595177 812.0495232 1686.044312 1447.842575 779.3829021 1612.133789 1439.581563
  827.6752935 1679.331543 1475.900731 797.8523761 1610.167114 1468.553615 841.6930068 1671.626709 1504.784588 814.8178688
  1607.080078 1498.211199 855.0833654 1663.963135 1533.994497 830.5783448 1602.373657 1527.808003 869.9232227 1658.454102
  1566.151617 841.8518016 1595.719849 1559.787951 882.8225245 1654.453491 1598.593486 853.5288816 1590.33728 1591.870544 897.2640994
  1653.354248 1631.490841 864.7586175 1584.94043 1624.233896 912.4561632 1654.004517 1690.604497 712.8762871 1336.88855 1608.955642
  1245.20297 2113.064941 1724.387197 727.4860996 1330.78833 1642.083774 1259.790326 2111.79248 1758.169898 742.0959121 1324.528687
  1675.211906 1274.377681 2110.883789 1791.952598 756.7057246 1316.949829 1708.340038 1288.965037 2110.228027 1825.735299 771.315537
  1309.427612 1741.468169 1303.552393 2109.638184 1859.517999 785.9253495 1301.980957 1774.596301 1318.139748 2109.037109 1893.3007
  800.535162 1294.821045 1807.724433 1332.727104 2108.402832 1927.0834 815.1449745 1288.008667 1840.852565 1347.31446 2107.716797
  1960.8661 829.754787 1281.647583 1873.980697 1361.901816 2106.969727 1994.648801 844.3645995 1275.82959 1907.108829 1376.489171
  2106.145508 2028.431501 858.974412 1270.62207 1940.236961 1391.076527 2105.224609 2062.214202 873.5842245 1266.069946 1973.365093
  1405.663883 2104.199707 2095.996902 888.1940369 1262.172119 2006.493224 1420.251238 2103.091309 2129.779603 902.8038494
  1258.852539 2039.621356 1434.838594 2101.929199 2163.562303 917.4136619 1256.021973 2072.749488 1449.42595 2100.744141 2197.345004
  932.0234744 1253.592041 2105.87762 1464.013306 2099.580566 2231.127704 946.6332869 1251.449341 2139.005752 1478.600661 2098.480469
  2264.910405 961.2430994 1249.55603 2172.133884 1493.188017 2097.505859 2298.693105 975.8529119 1247.836792 2205.262016 1507.775373
  2096.708008 2332.475805 990.4627244 1246.254639 2238.390148 1522.362729 2096.13623 2366.258506 1005.072537 1244.77063 2271.518279
  1536.950084 2095.811523 2400.041206 1019.682349 1243.335327 2304.646411 1551.53744 2095.727539 2433.823907 1034.292162 1241.932129
  2337.774543 1566.124796 2095.835938 2467.606607 1048.901974 1240.525513 2370.902675 1580.712151 2096.09668 2501.389308 1063.511787
  1239.141479 2404.030807 1595.299507 2096.453613 2535.172008 1078.121599 1237.751953 2437.158939 1609.886863 2096.868652
  2568.954709 1092.731412 1236.339355 2470.287071 1624.474219 2097.317871 2602.737409 1107.341224 1234.866211 2503.415203
  1639.061574 2097.770508 2636.520109 1121.951037 1233.344238 2536.543334 1653.64893 2098.208496 2670.30281 1136.560849 1231.769653
  2569.671466 1668.236286 2098.62793 2704.08551 1151.170662 1230.153442 2602.799598 1682.823641 2099.024902 2737.868211 1165.780474
  1228.537109 2635.92773 1697.410997 2099.395996 2771.650911 1180.390287 1226.959351 2669.055862 1711.998353 2099.740234 2805.433612
  1195.000099 1225.474609 2702.183994 1726.585709 2100.053711 2839.216312 1209.609912 1224.101929 2735.312126 1741.173064
  2100.334961 2872.999013 1224.219724 1222.888306 2768.440258 1755.76042 2100.578125 2906.781713 1238.829537 1221.841919 2801.568389
  1770.347776 2100.783203 2940.564413 1253.439349 1220.987793 2834.696521 1784.935132 2100.951172 2974.347114 1268.049162
  1220.342529 2867.824653 1799.522487 2101.075195 3008.129814 1282.658974 1219.905396 2900.952785 1814.109843 2101.162598
  3041.912515 1297.268787 1219.696899 2934.080917 1828.697199 2101.204102 1180.636721 506.0355753 1426.44043 1079.563341 1040.70814
  2140.211914 1204.171135 509.0283267 1425.1875 1105.866639 1040.925089 2139.791016 1227.705549 512.0210781 1422.980103 1132.169938
  1041.142038 2139.046387 1251.239962 515.0138295 1419.978271 1158.473237 1041.358987 2138.038574 1246.086231 684.9020686
  1645.769043 1239.763561 721.6846902 1696.398193 1264.136712 700.1587545 1640.38269 1257.565474 738.406359 1693.014282 1281.828601
  715.8527485 1637.220581 1275.164722 754.659467 1690.606812 1299.218487 728.0591724 1631.758545 1292.109962 768.75978 1687.56897
  1317.542892 739.3520913 1625.398193 1309.876078 782.7887224 1684.892578 1336.31719 750.9375536 1620.34314 1328.043321 797.3580847
  1683.901123 1355.40372 762.5016576 1616.278198 1346.497381 811.7666649 1683.699097 1374.606258 774.1010387 1612.954224 1365.061626
  826.0664645 1684.08667 1402.496072 792.9571262 1610.151245 1393.006424 845.6423873 1682.805298 1430.603228 811.7888989 1607.682007
  1421.872308 861.2776362 1676.431885 1459.158711 830.3005697 1605.473755 1451.331667 875.6959299 1669.000488 1488.402771 847.566961
  1602.346191 1481.449127 888.9282493 1660.656616 1518.605413 863.0370259 1597.866333 1512.102829 902.6551341 1654.151245
  1550.085587 876.3597404 1592.019287 1543.388705 917.9870011 1651.555908 1582.245343 889.1538686 1586.338745 1575.162901 934.191377
  1651.174927 1614.688939 902.0071777 1580.728027 1607.2541 950.9558889 1651.749756 1648.00563 913.8287724 1575.704468 1640.065906
  966.4164779 1652.3125 1680.940114 927.748436 1573.805908 1672.636676 982.6922305 1654.071167 1713.316576 944.4705982 1576.265747
  1704.645561 1001.58509 1659.957886 1773.009723 788.7834474 1317.032227 1691.043505 1323.819359 2110.056152 1806.815266 803.6135243
  1309.300049 1724.112267 1338.640933 2109.615723 1840.620808 818.4436013 1301.476196 1757.181028 1353.462507 2109.078613
  1874.426351 833.2736782 1294.106567 1790.24979 1368.284081 2108.494141 1908.231893 848.1037552 1287.108643 1823.318551 1383.105655
  2107.847168 1942.037436 862.9338321 1280.588623 1856.387313 1397.927229 2107.132813 1975.842978 877.7639091 1274.625 1889.456075
  1412.748803 2106.338379 2009.648521 892.5939861 1269.320801 1922.524836 1427.570377 2105.424316 2043.454063 907.424063 1264.791138
  1955.593598 1442.391951 2104.36377 2077.259606 922.25414 1261.000854 1988.662359 1457.213525 2103.199219 2111.065148 937.0842169
  1257.831299 2021.731121 1472.035099 2101.958984 2144.870691 951.9142939 1255.179932 2054.799882 1486.856673 2100.692383
  2178.676233 966.7443708 1252.898438 2087.868644 1501.678246 2099.437012 2212.481776 981.5744478 1250.909912 2120.937406 1516.49982
  2098.234863 2246.287319 996.4045247 1249.130127 2154.006167 1531.321394 2097.148926 2280.092861 1011.234602 1247.53894 2187.074929
  1546.142968 2096.272461 2313.898404 1026.064679 1246.078125 2220.14369 1560.964542 2095.662598 2347.703946 1040.894756 1244.683472
  2253.212452 1575.786116 2095.371094 2381.509489 1055.724833 1243.316528 2286.281214 1590.60769 2095.345215 2415.315031 1070.55491
  1241.942505 2319.349975 1605.429264 2095.536621 2449.120574 1085.384986 1240.588379 2352.418737 1620.250838 2095.867188
  2482.926116 1100.215063 1239.217163 2385.487498 1635.072412 2096.299316 2516.731659 1115.04514 1237.834839 2418.55626 1649.893986
  2096.780762 2550.537201 1129.875217 1236.410767 2451.625022 1664.71556 2097.279297 2584.342744 1144.705294 1234.942749 2484.693783
  1679.537134 2097.770996 2618.148286 1159.535371 1233.405396 2517.762545 1694.358708 2098.236816 2651.953829 1174.365448
  1231.767944 2550.831306 1709.180282 2098.670898 2685.759371 1189.195525 1230.103516 2583.900068 1724.001856 2099.074219
  2719.564914 1204.025602 1228.411377 2616.96883 1738.82343 2099.455566 2753.370456 1218.855679 1226.7854 2650.037591 1753.645004
  2099.803711 2787.175999 1233.685756 1225.236572 2683.106353 1768.466578 2100.12207 2820.981541 1248.515833 1223.797729 2716.175114
  1783.288152 2100.407715 2854.787084 1263.34591 1222.538086 2749.243876 1798.109726 2100.658691 2888.592627 1278.175987 1221.439087
  2782.312637 1812.9313 2100.868164 2922.398169 1293.006064 1220.555176 2815.381399 1827.752874 2101.040039 2956.203712 1307.836141
  1219.879517 2848.450161 1842.574448 2101.171875 2990.009254 1322.666218 1219.435303 2881.518922 1857.396022 2101.260254
  3023.814797 1337.496295 1219.216553 2914.587684 1872.217596 2101.305176 1166.646578 534.893783 1429.683472 1066.66743 1068.308789
  2141.314453 1194.265725 526.2969695 1427.937012 1099.627421 1052.371771 2140.73291 1193.708619 681.3777901 1650.736694 1186.903517
  720.9090587 1705.192139 1211.552954 699.756439 1647.612427 1205.018474 737.7341427 1699.914063 1229.165242 716.8439872 1643.522339
  1222.697749 754.4510507 1695.299683 1245.435813 731.7839409 1638.479736 1238.592513 770.9420098 1692.139404 1262.749055
  745.9322665 1633.32373 1255.613721 786.2916078 1688.510742 1280.772393 758.2180488 1626.598145 1273.249674 800.2224943 1683.933228
  1299.22502 769.3581774 1619.61853 1291.154177 813.7793028 1680.219604 1317.830762 781.4035914 1614.544678 1309.237273 828.0196071
  1678.157349 1336.449769 794.5827734 1611.404053 1327.504199 842.4093291 1676.702637 1355.176299 807.5137892 1608.463989
  1345.527742 858.2744212 1677.837402 1384.076268 825.8855579 1605.539429 1374.277288 878.5347847 1678.023682 1413.064051 844.277004
  1602.772583 1403.803036 895.1390998 1673.306641 1442.296411 862.6057751 1600.307617 1433.997921 909.2328679 1665.436401
  1472.199911 879.4008134 1596.384888 1464.858621 921.5936498 1655.747803 1502.750097 895.5997729 1592.573486 1495.978376
  935.3539018 1648.912231 1534.111158 909.9296451 1586.917236 1527.058278 952.2508327 1647.304077 1566.163412 923.0375028
  1580.296387 1558.521241 969.9286841 1647.648926 1598.49755 936.9480527 1575.459106 1590.347339 987.9131561 1649.156128 1631.124543
  951.5030825 1572.412842 1622.640928 1005.248165 1650.556519 1663.970786 966.3058803 1570.047852 1655.20091 1022.619107 1652.357544
  1696.571093 984.5146401 1572.453125 1687.6899 1042.889984 1658.365112 1729.044474 999.52866 1570.370972 1719.768299 1060.042113
  1659.885986 1761.006707 1016.319663 1570.762207 1751.44649 1078.322649 1662.967407 1821.941284 855.409478 1300.492676 1738.182377
  1393.636695 2109.154785 1855.763623 870.3362743 1293.051758 1771.235751 1408.557726 2108.65625 1889.585961 885.2630705 1285.72522
  1804.289125 1423.478756 2108.044434 1923.408299 900.1898668 1278.966675 1837.342499 1438.399786 2107.393555 1957.230637
  915.1166631 1272.76123 1870.395873 1453.320816 2106.661133 1991.052976 930.0434594 1267.266602 1903.449247 1468.241847 2105.775879
  2024.875314 944.9702557 1262.776001 1936.502621 1483.162877 2104.649902 2058.697652 959.897052 1259.192505 1969.555996 1498.083907
  2103.375977 2092.519991 974.8238483 1256.323853 2002.60937 1513.004938 2102.024902 2126.342329 989.7506445 1253.932617 2035.662744
  1527.925968 2100.634766 2160.164667 1004.677441 1251.920166 2068.716118 1542.846998 2099.242188 2193.987006 1019.604237
  1250.127441 2101.769492 1557.768029 2097.873047 2227.809344 1034.531033 1248.520142 2134.822866 1572.689059 2096.598633
  2261.631682 1049.45783 1247.120605 2167.87624 1587.610089 2095.55127 2295.454021 1064.384626 1245.842529 2200.929614 1602.531119
  2094.871582 2329.276359 1079.311422 1244.583862 2233.982988 1617.45215 2094.655273 2363.098697 1094.238219 1243.283691 2267.036362
  1632.37318 2094.764648 2396.921035 1109.165015 1241.98584 2300.089736 1647.29421 2095.081543 2430.743374 1124.091811 1240.671265
  2333.14311 1662.215241 2095.540039 2464.565712 1139.018607 1239.327148 2366.196484 1677.136271 2096.078613 2498.38805 1153.945404
  1237.958008 2399.249858 1692.057301 2096.658203 2532.210389 1168.8722 1236.563843 2432.303232 1706.978331 2097.238281 2566.032727
  1183.798996 1235.102295 2465.356606 1721.899362 2097.79541 2599.855065 1198.725793 1233.536865 2498.40998 1736.820392 2098.29248
  2633.677404 1213.652589 1231.810669 2531.463354 1751.741422 2098.741211 2667.499742 1228.579385 1230.026001 2564.516728
  1766.662453 2099.15918 2701.32208 1243.506181 1228.250854 2597.570102 1781.583483 2099.547852 2735.144418 1258.432978 1226.516357
  2630.623476 1796.504513 2099.905762 2768.966757 1273.359774 1224.870972 2663.67685 1811.425543 2100.229004 2802.789095 1288.28657
  1223.352539 2696.730224 1826.346574 2100.524902 2836.611433 1303.213367 1221.988525 2729.783598 1841.267604 2100.776855
  2870.433772 1318.140163 1220.824951 2762.836972 1856.188634 2100.991699 2904.25611 1333.066959 1219.88916 2795.890346 1871.109665
  2101.17041 2938.078448 1347.993755 1219.187988 2828.94372 1886.030695 2101.307129 2971.900787 1362.920552 1218.730957 2861.997094
  1900.951725 2101.402832 3005.723125 1377.847348 1218.50293 2895.050468 1915.872756 2101.453613 1141.198418 669.1691773 1649.832886
  1133.627335 713.0836281 1710.37561 1159.534267 688.5208217 1646.015747 1151.597005 734.5817633 1709.500977 1176.650057 710.0694144
  1646.467529 1169.396688 752.1813454 1704.495239 1191.994385 729.1209252 1643.271606 1184.819683 770.1983062 1699.551147
  1208.713052 746.3638518 1639.338135 1201.644287 786.4003666 1694.021118 1225.926759 762.3339314 1634.849487 1218.598258
  803.3120487 1690.647217 1243.500696 776.8768382 1629.907227 1235.959421 818.4293775 1686.386353 1261.688037 789.6537543 1623.34375
  1253.871236 832.0947177 1680.983276 1280.309926 800.9914182 1615.81897 1272.137121 844.6626894 1675.145142 1298.883136 813.396065
  1610.366943 1289.85129 860.8687793 1674.92688 1317.265996 827.3845475 1607.36438 1307.856018 876.0473522 1673.643311 1335.733151
  841.1569215 1604.29895 1325.733808 892.0251093 1673.707764 1365.485081 859.0292724 1600.917358 1355.342128 911.7573258 1673.390015
  1395.313143 876.8317385 1597.517212 1385.427362 929.3625909 1670.241455 1425.287688 894.7180719 1594.473999 1416.236433
  943.8741317 1663.014893 1455.602354 912.293401 1591.450073 1447.520688 957.1178507 1654.397705 1486.453551 928.845844 1587.557495
  1478.953729 971.2979567 1647.593628 1517.8721 944.0890031 1582.336182 1510.394788 987.2773317 1643.828613 1549.790886 958.5098628
  1576.521118 1541.761078 1005.765051 1644.249512 1581.965618 973.4757668 1572.086304 1573.278172 1025.405718 1646.995117
  1614.370291 988.7321838 1568.594971 1605.225381 1044.228525 1649.127686 1647.021743 1003.752551 1565.0802 1637.584901 1061.892927
  1649.959229 1679.420219 1020.574297 1564.178223 1669.82808 1080.449687 1652.178101 1711.583543 1038.326489 1564.582764 1701.884377
  1099.605787 1655.2677 1743.729025 1056.468683 1564.830444 1734.031181 1119.095653 1658.340576 1775.876925 1070.154289 1559.645386
  1766.042522 1133.318302 1654.466553 1807.645565 1086.610233 1558.933594 1797.795805 1149.533787 1653.897217 1869.23554 924.6080992
  1283.80542 1783.68324 1466.000721 2108.29248 1903.124806 939.5673291 1276.788818 1816.767593 1480.958006 2107.746582 1937.014072
  954.5265591 1270.216919 1849.851946 1495.915291 2107.149902 1970.903338 969.485789 1264.196533 1882.936299 1510.872575 2106.370117
  2004.792604 984.4450189 1259.873291 1916.020652 1525.82986 2105.09082 2038.68187 999.4042489 1256.723755 1949.105005 1540.787145
  2103.646484 2072.571136 1014.363479 1254.304199 1982.189358 1555.744429 2102.127441 2106.460402 1029.322709 1252.358154 2015.27371
  1570.701714 2100.580566 2140.349668 1044.281939 1250.664429 2048.358063 1585.658999 2099.01416 2174.238934 1059.241169 1249.146362
  2081.442416 1600.616284 2097.42041 2208.128201 1074.200399 1247.699951 2114.526769 1615.573568 2095.807617 2242.017467 1089.159628
  1246.591064 2147.611122 1630.530853 2094.476074 2275.906733 1104.118858 1245.574463 2180.695475 1645.488138 2093.602539
  2309.795999 1119.078088 1244.51355 2213.779828 1660.445422 2093.615723 2343.685265 1134.037318 1243.295288 2246.864181 1675.402707
  2093.974121 2377.574531 1148.996548 1242.035522 2279.948534 1690.359992 2094.503906 2411.463797 1163.955778 1240.760132
  2313.032887 1705.317277 2095.128906 2445.353063 1178.915008 1239.451782 2346.117239 1720.274561 2095.813965 2479.242329
  1193.874238 1238.118408 2379.201592 1735.231846 2096.518555 2513.131596 1208.833468 1236.772583 2412.285945 1750.189131
  2097.219238 2547.020862 1223.792698 1235.369263 2445.370298 1765.146415 2097.880371 2580.910128 1238.751928 1233.826416
  2478.454651 1780.1037 2098.399414 2614.799394 1253.711158 1231.917236 2511.539004 1795.060985 2098.853027 2648.68866 1268.670388
  1229.954346 2544.623357 1810.01827 2099.277832 2682.577926 1283.629618 1228.031738 2577.70771 1824.975554 2099.677246 2716.467192
  1298.588847 1226.166138 2610.792063 1839.932839 2100.047363 2750.356458 1313.548077 1224.388916 2643.876415 1854.890124
  2100.384766 2784.245724 1328.507307 1222.733032 2676.960768 1869.847408 2100.681152 2818.13499 1343.466537 1221.246826 2710.045121
  1884.804693 2100.945313 2852.024257 1358.425767 1219.987915 2743.129474 1899.761978 2101.163086 2885.913523 1373.384997
  1218.980713 2776.213827 1914.719263 2101.344238 2919.802789 1388.344227 1218.236816 2809.29818 1929.676547 2101.493652 2953.692055
  1403.303457 1217.777466 2842.382533 1944.633832 2101.598145 2987.581321 1418.262687 1217.538696 2875.466886 1959.591117
  2101.656738 1123.64129 700.53372 1649.610107 1115.960717 745.0575995 1711.012085 1137.739427 721.7573052 1646.182129 1129.588975
  768.5019792 1710.318726 1153.90845 741.6847471 1643.75769 1145.79062 787.8003838 1706.783203 1170.864524 759.9528641 1639.95459
  1162.950896 804.3657118 1700.364624 1188.159235 776.7732551 1635.61853 1180.339658 820.0375065 1694.265381 1205.782224 793.2569026
  1631.66394 1197.896401 836.2531305 1689.811646 1223.573969 809.2542606 1628.140381 1215.948457 850.1726819 1683.418945 1241.909825
  822.8574613 1622.203613 1234.069393 864.2353095 1678.107422 1260.451962 835.8116827 1616.101196 1252.260044 878.304436 1673.576416
  1279.138622 848.308582 1609.889893 1269.937525 895.2023612 1673.441406 1297.734889 861.4684043 1604.844116 1287.963482 910.4034991
  1671.325562 1316.208903 875.345568 1600.887085 1305.940412 925.8902432 1669.742065 1346.779175 892.4315283 1596.4646 1336.239951
  945.4231088 1669.183105 1377.412791 909.4404758 1591.981934 1366.880042 963.5321812 1666.749023 1408.079156 926.8569917
  1588.192017 1398.175367 978.7781128 1660.474243 1438.848908 944.6735233 1585.200684 1429.895356 992.5508651 1652.325195
  1469.878216 962.2798262 1582.226563 1461.84969 1006.031002 1643.991333 1501.346912 978.7805163 1578.049927 1493.519276 1022.205145
  1639.766479 1533.25956 994.1771467 1572.70874 1524.833238 1041.688001 1640.674316 1565.366148 1009.806011 1568.135376 1555.965635
  1063.596656 1645.572632 1597.57828 1025.885157 1564.607422 1587.492341 1084.435237 1649.415405 1629.986015 1041.489748 1560.677002
  1619.835806 1101.230826 1647.751831 1662.292295 1057.805311 1557.91626 1652.160128 1118.205397 1646.53479 1694.382002 1075.335673
  1557.022461 1684.172907 1137.071503 1648.234253 1726.197382 1093.909163 1557.606079 1716.039292 1156.175253 1650.322876
  1757.939577 1112.108179 1557.902588 1747.971939 1174.134325 1650.975952 1789.841962 1130.011057 1557.130127 1780.236033
  1191.491409 1650.330322 1821.443403 1145.168304 1553.563599 1812.130394 1204.837731 1644.592407 1853.059046 1160.575685
  1550.571045 1844.124621 1218.332982 1639.352051 1884.676416 1176.142505 1547.624268 1876.079857 1232.724484 1635.441284
  1916.263481 1192.013003 1545.036377 1908.39148 1245.565504 1629.295166 1973.719176 1027.493061 1255.802734 1898.504113 1556.862206
  2105.703125 2004.492705 1044.489449 1253.513672 1933.291215 1564.242589 2103.97998 2035.266234 1061.485837 1251.847412 1968.078317
  1571.622973 2102.263184 2066.039763 1078.482225 1250.480957 2002.865419 1579.003356 2100.540527 2096.813292 1095.478613
  1249.277588 2037.652521 1586.38374 2098.804688 2127.586821 1112.475001 1248.057617 2072.439623 1593.764123 2096.970703 2140.122647
  1297.701869 1549.077271 2134.774325 1347.036527 1637.794556 2172.892824 1310.627105 1547.346313 2167.720061 1360.246433
  1638.799194 2206.20786 1320.572063 1539.99353 2200.861836 1374.039839 1641.033691 2239.657806 1332.02739 1536.316162 2234.312081
  1388.139274 1645.326904 2272.907109 1347.31528 1538.890991 2267.887903 1403.404073 1651.101807 2306.511972 1362.664033 1542.468384
  2301.913166 1417.793494 1655.792358 2340.215691 1377.961466 1545.735474 2336.196849 1430.783461 1657.321655 2374.276027
  1392.955091 1548.487549 2370.867975 1442.406504 1655.405884 2408.704116 1407.617816 1551.259644 2405.888368 1453.380843
  1652.216064 2443.682526 1421.622826 1553.455078 2441.345158 1463.74407 1647.687012 2479.131326 1434.208084 1552.708862 2477.07508
  1474.223358 1642.925903 2515.066802 1445.930818 1550.705322 2513.059472 1485.489958 1639.861328 2559.202383 1318.55146 1232.086182
  2532.444303 1714.356866 2098.99707 2596.218494 1331.477979 1229.865845 2562.157164 1739.685712 2099.424316 2633.234605 1344.404499
  1227.760742 2591.870025 1765.014558 2099.839844 2670.250715 1357.331018 1225.709473 2621.582886 1790.343404 2100.229004
  2707.266826 1370.257537 1223.766724 2651.295747 1815.67225 2100.576172 2744.282937 1383.184056 1221.94873 2681.008608 1841.001096
  2100.893555 2781.299047 1396.110575 1220.30603 2710.721469 1866.329942 2101.166504 2818.315158 1409.037094 1218.919189 2740.43433
  1891.658788 2101.381348 2855.331268 1421.963613 1217.809692 2770.147191 1916.987634 2101.564941 2892.347379 1434.890132
  1217.040771 2799.860052 1942.31648 2101.727051 2929.36349 1447.816651 1216.573608 2829.572913 1967.645325 2101.850586 2966.3796
  1460.74317 1216.353394 2859.285774 1992.974171 2101.92041 1094.761979 736.6060106 1648.064819 1086.902422 781.6243396 1710.353394
  1112.833235 757.7512897 1647.974609 1104.660376 803.9403406 1711.100464 1130.692425 775.108451 1643.083252 1122.091428 823.0331043
  1708.12085 1148.754165 791.8509358 1637.785767 1140.104437 839.3497291 1701.924438 1166.717992 809.1503835 1634.101563 1158.147956
  855.4684661 1696.438843 1184.902082 825.5005405 1629.864868 1177.050573 867.2338333 1685.931396 1203.256821 841.0420815
  1625.298706 1195.430425 881.92437 1680.202271 1221.861053 855.2574108 1619.638062 1213.790688 896.6608076 1675.292114 1240.624949
  868.6315581 1613.398193 1232.05045 911.8186526 1671.564575 1259.4096 881.8553551 1607.350586 1250.102874 927.8675795 1669.495605
  1278.029941 895.840407 1602.567871 1268.222584 943.4392536 1667.070435 1296.683528 909.6494796 1597.639771 1286.398145 958.666984
  1664.303833 1328.040056 925.8174752 1591.839355 1317.203842 978.5082684 1664.035156 1359.443805 941.895454 1585.910522 1348.034896
  998.4834477 1664.017944 1390.731052 958.9014882 1581.298462 1379.549463 1015.435825 1659.897339 1421.900498 977.0567836
  1578.378906 1411.90026 1028.548356 1650.474487 1453.144207 995.5374858 1576.077515 1444.390796 1041.386352 1640.71521 1484.571927
  1013.853691 1573.775146 1476.264037 1058.06125 1636.515015 1516.430145 1030.678992 1569.640137 1507.521658 1078.774843 1638.338989
  1548.614251 1046.432132 1564.278564 1538.639434 1101.023513 1642.743774 1580.783958 1062.756397 1560.049927 1569.876058
  1123.242923 1647.523438 1612.992128 1079.096525 1556.128906 1602.157593 1139.946561 1644.675293 1645.128916 1095.816345 1553.00708
  1634.396524 1156.865764 1642.416748 1677.141668 1113.025099 1550.824585 1666.357313 1175.199521 1642.500488 1708.723338
  1132.262442 1551.836304 1698.07546 1194.507554 1644.28479 1740.199204 1151.697921 1553.406006 1729.773303 1213.659488 1646.130493
  1771.894361 1168.845256 1551.581909 1761.516767 1231.463994 1646.082642 1803.465804 1185.348178 1549.316895 1793.603852
  1245.629142 1641.020752 1834.945672 1201.844464 1547.205933 1825.651176 1259.735797 1636.090942 1866.4162 1218.302399 1544.7771
  1857.678423 1274.659147 1632.341919 1897.818777 1235.33881 1542.0979 1890.083898 1288.476888 1626.052002 1930.040368 1247.976251